LAMMPS data file via write_data, version 2 Aug 2023, timestep = 0, units = metal

216 atoms
1 atom types

0 16.29 xlo xhi
0 16.29 ylo yhi
0 16.29 zlo zhi

Masses

1 28.085

Atoms # atomic

1 1 0 0 0 0 0 0
2 1 0 2.715 2.715 0 0 0
3 1 2.715 0 2.715 0 0 0
4 1 2.715 2.715 0 0 0 0
5 1 1.3575 1.3575 1.3575 0 0 0
6 1 1.3575 4.0725 4.0725 0 0 0
7 1 4.0725 1.3575 4.0725 0 0 0
8 1 4.0725 4.0725 1.3575 0 0 0
9 1 5.43 0 0 0 0 0
10 1 5.43 2.715 2.715 0 0 0
11 1 8.145 0 2.715 0 0 0
12 1 8.145 2.715 0 0 0 0
13 1 6.7875 1.3575 1.3575 0 0 0
14 1 6.7875 4.0725 4.0725 0 0 0
15 1 9.5025 1.3575 4.0725 0 0 0
16 1 9.5025 4.0725 1.3575 0 0 0
17 1 10.86 0 0 0 0 0
18 1 10.86 2.715 2.715 0 0 0
19 1 13.575 0 2.715 0 0 0
20 1 13.575 2.715 0 0 0 0
21 1 12.2175 1.3575 1.3575 0 0 0
22 1 12.2175 4.0725 4.0725 0 0 0
23 1 14.9325 1.3575 4.0725 0 0 0
24 1 14.9325 4.0725 1.3575 0 0 0
25 1 0 5.43 0 0 0 0
26 1 0 8.145 2.715 0 0 0
27 1 2.715 5.43 2.715 0 0 0
28 1 2.715 8.145 0 0 0 0
29 1 1.3575 6.7875 1.3575 0 0 0
30 1 1.3575 9.5025 4.0725 0 0 0
31 1 4.0725 6.7875 4.0725 0 0 0
32 1 4.0725 9.5025 1.3575 0 0 0
33 1 5.43 5.43 0 0 0 0
34 1 5.43 8.145 2.715 0 0 0
35 1 8.145 5.43 2.715 0 0 0
36 1 8.145 8.145 0 0 0 0
37 1 6.7875 6.7875 1.3575 0 0 0
38 1 6.7875 9.5025 4.0725 0 0 0
39 1 9.5025 6.7875 4.0725 0 0 0
40 1 9.5025 9.5025 1.3575 0 0 0
41 1 10.86 5.43 0 0 0 0
42 1 10.86 8.145 2.715 0 0 0
43 1 13.575 5.43 2.715 0 0 0
44 1 13.575 8.145 0 0 0 0
45 1 12.2175 6.7875 1.3575 0 0 0
46 1 12.2175 9.5025 4.0725 0 0 0
47 1 14.9325 6.7875 4.0725 0 0 0
48 1 14.9325 9.5025 1.3575 0 0 0
49 1 0 10.86 0 0 0 0
50 1 0 13.575 2.715 0 0 0
51 1 2.715 10.86 2.715 0 0 0
52 1 2.715 13.575 0 0 0 0
53 1 1.3575 12.2175 1.3575 0 0 0
54 1 1.3575 14.9325 4.0725 0 0 0
55 1 4.0725 12.2175 4.0725 0 0 0
56 1 4.0725 14.9325 1.3575 0 0 0
57 1 5.43 10.86 0 0 0 0
58 1 5.43 13.575 2.715 0 0 0
59 1 8.145 10.86 2.715 0 0 0
60 1 8.145 13.575 0 0 0 0
61 1 6.7875 12.2175 1.3575 0 0 0
62 1 6.7875 14.9325 4.0725 0 0 0
63 1 9.5025 12.2175 4.0725 0 0 0
64 1 9.5025 14.9325 1.3575 0 0 0
65 1 10.86 10.86 0 0 0 0
66 1 10.86 13.575 2.715 0 0 0
67 1 13.575 10.86 2.715 0 0 0
68 1 13.575 13.575 0 0 0 0
69 1 12.2175 12.2175 1.3575 0 0 0
70 1 12.2175 14.9325 4.0725 0 0 0
71 1 14.9325 12.2175 4.0725 0 0 0
72 1 14.9325 14.9325 1.3575 0 0 0
73 1 0 0 5.43 0 0 0
74 1 0 2.715 8.145 0 0 0
75 1 2.715 0 8.145 0 0 0
76 1 2.715 2.715 5.43 0 0 0
77 1 1.3575 1.3575 6.7875 0 0 0
78 1 1.3575 4.0725 9.5025 0 0 0
79 1 4.0725 1.3575 9.5025 0 0 0
80 1 4.0725 4.0725 6.7875 0 0 0
81 1 5.43 0 5.43 0 0 0
82 1 5.43 2.715 8.145 0 0 0
83 1 8.145 0 8.145 0 0 0
84 1 8.145 2.715 5.43 0 0 0
85 1 6.7875 1.3575 6.7875 0 0 0
86 1 6.7875 4.0725 9.5025 0 0 0
87 1 9.5025 1.3575 9.5025 0 0 0
88 1 9.5025 4.0725 6.7875 0 0 0
89 1 10.86 0 5.43 0 0 0
90 1 10.86 2.715 8.145 0 0 0
91 1 13.575 0 8.145 0 0 0
92 1 13.575 2.715 5.43 0 0 0
93 1 12.2175 1.3575 6.7875 0 0 0
94 1 12.2175 4.0725 9.5025 0 0 0
95 1 14.9325 1.3575 9.5025 0 0 0
96 1 14.9325 4.0725 6.7875 0 0 0
97 1 0 5.43 5.43 0 0 0
98 1 0 8.145 8.145 0 0 0
99 1 2.715 5.43 8.145 0 0 0
100 1 2.715 8.145 5.43 0 0 0
101 1 1.3575 6.7875 6.7875 0 0 0
102 1 1.3575 9.5025 9.5025 0 0 0
103 1 4.0725 6.7875 9.5025 0 0 0
104 1 4.0725 9.5025 6.7875 0 0 0
105 1 5.43 5.43 5.43 0 0 0
106 1 5.43 8.145 8.145 0 0 0
107 1 8.145 5.43 8.145 0 0 0
108 1 8.145 8.145 5.43 0 0 0
109 1 6.7875 6.7875 6.7875 0 0 0
110 1 6.7875 9.5025 9.5025 0 0 0
111 1 9.5025 6.7875 9.5025 0 0 0
112 1 9.5025 9.5025 6.7875 0 0 0
113 1 10.86 5.43 5.43 0 0 0
114 1 10.86 8.145 8.145 0 0 0
115 1 13.575 5.43 8.145 0 0 0
116 1 13.575 8.145 5.43 0 0 0
117 1 12.2175 6.7875 6.7875 0 0 0
118 1 12.2175 9.5025 9.5025 0 0 0
119 1 14.9325 6.7875 9.5025 0 0 0
120 1 14.9325 9.5025 6.7875 0 0 0
121 1 0 10.86 5.43 0 0 0
122 1 0 13.575 8.145 0 0 0
123 1 2.715 10.86 8.145 0 0 0
124 1 2.715 13.575 5.43 0 0 0
125 1 1.3575 12.2175 6.7875 0 0 0
126 1 1.3575 14.9325 9.5025 0 0 0
127 1 4.0725 12.2175 9.5025 0 0 0
128 1 4.0725 14.9325 6.7875 0 0 0
129 1 5.43 10.86 5.43 0 0 0
130 1 5.43 13.575 8.145 0 0 0
131 1 8.145 10.86 8.145 0 0 0
132 1 8.145 13.575 5.43 0 0 0
133 1 6.7875 12.2175 6.7875 0 0 0
134 1 6.7875 14.9325 9.5025 0 0 0
135 1 9.5025 12.2175 9.5025 0 0 0
136 1 9.5025 14.9325 6.7875 0 0 0
137 1 10.86 10.86 5.43 0 0 0
138 1 10.86 13.575 8.145 0 0 0
139 1 13.575 10.86 8.145 0 0 0
140 1 13.575 13.575 5.43 0 0 0
141 1 12.2175 12.2175 6.7875 0 0 0
142 1 12.2175 14.9325 9.5025 0 0 0
143 1 14.9325 12.2175 9.5025 0 0 0
144 1 14.9325 14.9325 6.7875 0 0 0
145 1 0 0 10.86 0 0 0
146 1 0 2.715 13.575 0 0 0
147 1 2.715 0 13.575 0 0 0
148 1 2.715 2.715 10.86 0 0 0
149 1 1.3575 1.3575 12.2175 0 0 0
150 1 1.3575 4.0725 14.9325 0 0 0
151 1 4.0725 1.3575 14.9325 0 0 0
152 1 4.0725 4.0725 12.2175 0 0 0
153 1 5.43 0 10.86 0 0 0
154 1 5.43 2.715 13.575 0 0 0
155 1 8.145 0 13.575 0 0 0
156 1 8.145 2.715 10.86 0 0 0
157 1 6.7875 1.3575 12.2175 0 0 0
158 1 6.7875 4.0725 14.9325 0 0 0
159 1 9.5025 1.3575 14.9325 0 0 0
160 1 9.5025 4.0725 12.2175 0 0 0
161 1 10.86 0 10.86 0 0 0
162 1 10.86 2.715 13.575 0 0 0
163 1 13.575 0 13.575 0 0 0
164 1 13.575 2.715 10.86 0 0 0
165 1 12.2175 1.3575 12.2175 0 0 0
166 1 12.2175 4.0725 14.9325 0 0 0
167 1 14.9325 1.3575 14.9325 0 0 0
168 1 14.9325 4.0725 12.2175 0 0 0
169 1 0 5.43 10.86 0 0 0
170 1 0 8.145 13.575 0 0 0
171 1 2.715 5.43 13.575 0 0 0
172 1 2.715 8.145 10.86 0 0 0
173 1 1.3575 6.7875 12.2175 0 0 0
174 1 1.3575 9.5025 14.9325 0 0 0
175 1 4.0725 6.7875 14.9325 0 0 0
176 1 4.0725 9.5025 12.2175 0 0 0
177 1 5.43 5.43 10.86 0 0 0
178 1 5.43 8.145 13.575 0 0 0
179 1 8.145 5.43 13.575 0 0 0
180 1 8.145 8.145 10.86 0 0 0
181 1 6.7875 6.7875 12.2175 0 0 0
182 1 6.7875 9.5025 14.9325 0 0 0
183 1 9.5025 6.7875 14.9325 0 0 0
184 1 9.5025 9.5025 12.2175 0 0 0
185 1 10.86 5.43 10.86 0 0 0
186 1 10.86 8.145 13.575 0 0 0
187 1 13.575 5.43 13.575 0 0 0
188 1 13.575 8.145 10.86 0 0 0
189 1 12.2175 6.7875 12.2175 0 0 0
190 1 12.2175 9.5025 14.9325 0 0 0
191 1 14.9325 6.7875 14.9325 0 0 0
192 1 14.9325 9.5025 12.2175 0 0 0
193 1 0 10.86 10.86 0 0 0
194 1 0 13.575 13.575 0 0 0
195 1 2.715 10.86 13.575 0 0 0
196 1 2.715 13.575 10.86 0 0 0
197 1 1.3575 12.2175 12.2175 0 0 0
198 1 1.3575 14.9325 14.9325 0 0 0
199 1 4.0725 12.2175 14.9325 0 0 0
200 1 4.0725 14.9325 12.2175 0 0 0
201 1 5.43 10.86 10.86 0 0 0
202 1 5.43 13.575 13.575 0 0 0
203 1 8.145 10.86 13.575 0 0 0
204 1 8.145 13.575 10.86 0 0 0
205 1 6.7875 12.2175 12.2175 0 0 0
206 1 6.7875 14.9325 14.9325 0 0 0
207 1 9.5025 12.2175 14.9325 0 0 0
208 1 9.5025 14.9325 12.2175 0 0 0
209 1 10.86 10.86 10.86 0 0 0
210 1 10.86 13.575 13.575 0 0 0
211 1 13.575 10.86 13.575 0 0 0
212 1 13.575 13.575 10.86 0 0 0
213 1 12.2175 12.2175 12.2175 0 0 0
214 1 12.2175 14.9325 14.9325 0 0 0
215 1 14.9325 12.2175 14.9325 0 0 0
216 1 14.9325 14.9325 12.2175 0 0 0

Velocities

1 0 0 0
2 0 0 0
3 0 0 0
4 0 0 0
5 0 0 0
6 0 0 0
7 0 0 0
8 0 0 0
9 0 0 0
10 0 0 0
11 0 0 0
12 0 0 0
13 0 0 0
14 0 0 0
15 0 0 0
16 0 0 0
17 0 0 0
18 0 0 0
19 0 0 0
20 0 0 0
21 0 0 0
22 0 0 0
23 0 0 0
24 0 0 0
25 0 0 0
26 0 0 0
27 0 0 0
28 0 0 0
29 0 0 0
30 0 0 0
31 0 0 0
32 0 0 0
33 0 0 0
34 0 0 0
35 0 0 0
36 0 0 0
37 0 0 0
38 0 0 0
39 0 0 0
40 0 0 0
41 0 0 0
42 0 0 0
43 0 0 0
44 0 0 0
45 0 0 0
46 0 0 0
47 0 0 0
48 0 0 0
49 0 0 0
50 0 0 0
51 0 0 0
52 0 0 0
53 0 0 0
54 0 0 0
55 0 0 0
56 0 0 0
57 0 0 0
58 0 0 0
59 0 0 0
60 0 0 0
61 0 0 0
62 0 0 0
63 0 0 0
64 0 0 0
65 0 0 0
66 0 0 0
67 0 0 0
68 0 0 0
69 0 0 0
70 0 0 0
71 0 0 0
72 0 0 0
73 0 0 0
74 0 0 0
75 0 0 0
76 0 0 0
77 0 0 0
78 0 0 0
79 0 0 0
80 0 0 0
81 0 0 0
82 0 0 0
83 0 0 0
84 0 0 0
85 0 0 0
86 0 0 0
87 0 0 0
88 0 0 0
89 0 0 0
90 0 0 0
91 0 0 0
92 0 0 0
93 0 0 0
94 0 0 0
95 0 0 0
96 0 0 0
97 0 0 0
98 0 0 0
99 0 0 0
100 0 0 0
101 0 0 0
102 0 0 0
103 0 0 0
104 0 0 0
105 0 0 0
106 0 0 0
107 0 0 0
108 0 0 0
109 0 0 0
110 0 0 0
111 0 0 0
112 0 0 0
113 0 0 0
114 0 0 0
115 0 0 0
116 0 0 0
117 0 0 0
118 0 0 0
119 0 0 0
120 0 0 0
121 0 0 0
122 0 0 0
123 0 0 0
124 0 0 0
125 0 0 0
126 0 0 0
127 0 0 0
128 0 0 0
129 0 0 0
130 0 0 0
131 0 0 0
132 0 0 0
133 0 0 0
134 0 0 0
135 0 0 0
136 0 0 0
137 0 0 0
138 0 0 0
139 0 0 0
140 0 0 0
141 0 0 0
142 0 0 0
143 0 0 0
144 0 0 0
145 0 0 0
146 0 0 0
147 0 0 0
148 0 0 0
149 0 0 0
150 0 0 0
151 0 0 0
152 0 0 0
153 0 0 0
154 0 0 0
155 0 0 0
156 0 0 0
157 0 0 0
158 0 0 0
159 0 0 0
160 0 0 0
161 0 0 0
162 0 0 0
163 0 0 0
164 0 0 0
165 0 0 0
166 0 0 0
167 0 0 0
168 0 0 0
169 0 0 0
170 0 0 0
171 0 0 0
172 0 0 0
173 0 0 0
174 0 0 0
175 0 0 0
176 0 0 0
177 0 0 0
178 0 0 0
179 0 0 0
180 0 0 0
181 0 0 0
182 0 0 0
183 0 0 0
184 0 0 0
185 0 0 0
186 0 0 0
187 0 0 0
188 0 0 0
189 0 0 0
190 0 0 0
191 0 0 0
192 0 0 0
193 0 0 0
194 0 0 0
195 0 0 0
196 0 0 0
197 0 0 0
198 0 0 0
199 0 0 0
200 0 0 0
201 0 0 0
202 0 0 0
203 0 0 0
204 0 0 0
205 0 0 0
206 0 0 0
207 0 0 0
208 0 0 0
209 0 0 0
210 0 0 0
211 0 0 0
212 0 0 0
213 0 0 0
214 0 0 0
215 0 0 0
216 0 0 0
